; MD production run for protein systems (CHARMM36m)
title                   = MD production run

; Run parameters
integrator              = md
nsteps                  = 50000000
dt                      = 0.002

; Output control
nstxout                 = 0
nstvout                 = 0
nstfout                 = 0
nstenergy               = 5000
nstlog                  = 5000
nstxout-compressed      = 5000
compressed-x-grps       = System

; Bond parameters
continuation            = yes
constraint_algorithm    = lincs
constraints             = h-bonds
lincs_iter              = 1
lincs_order             = 4

; Neighbor searching
cutoff-scheme           = Verlet
ns_type                 = grid
nstlist                 = 10
pbc                     = xyz

; Electrostatics and VdW (CHARMM36m settings)
coulombtype             = PME
pme_order               = 4
fourierspacing          = 0.16
rcoulomb                = 1.2
rvdw                    = 1.2
vdwtype                 = cutoff
vdw-modifier            = Force-switch
rvdw-switch             = 1.0
DispCorr                = no

; Temperature coupling
tcoupl                  = V-rescale
tc-grps                 = Protein Non-Protein
tau_t                   = 0.1     0.1
ref_t                   = 300     300

; Pressure coupling (Parrinello-Rahman for production)
pcoupl                  = Parrinello-Rahman
pcoupltype              = isotropic
tau_p                   = 5.0
ref_p                   = 1.0
compressibility         = 4.5e-5
refcoord_scaling        = com

; Velocity generation
gen_vel                 = no
