; NPT equilibration for protein systems (CHARMM36m)
title                   = NPT equilibration
define                  = -DPOSRES

; Run parameters
integrator              = md
nsteps                  = 50000
dt                      = 0.002

; Output control
nstxout                 = 500
nstvout                 = 500
nstenergy               = 500
nstlog                  = 500

; Bond parameters
continuation            = yes
constraint_algorithm    = lincs
constraints             = h-bonds
lincs_iter              = 1
lincs_order             = 4

; Neighbor searching
cutoff-scheme           = Verlet
ns_type                 = grid
nstlist                 = 10
pbc                     = xyz

; Electrostatics and VdW (CHARMM36m settings)
coulombtype             = PME
pme_order               = 4
fourierspacing          = 0.16
rcoulomb                = 1.2
rvdw                    = 1.2
vdwtype                 = cutoff
vdw-modifier            = Force-switch
rvdw-switch             = 1.0
DispCorr                = no

; Temperature coupling
tcoupl                  = V-rescale
tc-grps                 = Protein Non-Protein
tau_t                   = 0.1     0.1
ref_t                   = 300     300

; Pressure coupling
pcoupl                  = Berendsen
pcoupltype              = isotropic
tau_p                   = 2.0
ref_p                   = 1.0
compressibility         = 4.5e-5

; Velocity generation
gen_vel                 = no
